 Gaussian 16, Revision A.03,
 Gaussian 16:  ES64L-G16RevA.03 25-Dec-2016

 ----------------------------------------------------------
 #p b3lyp/6-31G* em=gd3bj ExtraLinks=L608 nosymm guess=read
 ----------------------------------------------------------

 --------------
 opted geometry
 --------------
 Symbolic Z-matrix:
 Charge =  0 Multiplicity = 1

                          Input orientation:
 ---------------------------------------------------------------------
 Center     Atomic      Atomic             Coordinates (Angstroms)
 Number     Number       Type             X           Y           Z
 ---------------------------------------------------------------------
      1          6           0        0.000002   -0.263692    0.896979
      2          6           0       -0.000007   -1.563588    0.502534
      3          1           0       -0.000017   -1.862092   -0.549821
      4          1           0       -0.000010   -2.378959    1.229163
      5          1           0        0.000010   -0.047446    1.971945
      6          6           0        0.000002    0.934896   -1.350305
      7          6           0        0.000002    0.934896    0.008121
      8          1           0        0.000007    1.900763    0.527175
      9          1           0        0.000005    0.014566   -1.941531
     10          1           0        0.000009    1.866984   -1.919546
 ---------------------------------------------------------------------

 SCF Done:  E(UB3LYP) =  -155.995718999     A.U. after   14 cycles

 Alpha  occ. eigenvalues --  -10.19757 -10.19730 -10.18697 -10.18696  -0.79187
 Alpha  occ. eigenvalues --   -0.72018  -0.61595  -0.52713  -0.48296  -0.43362
 Alpha  occ. eigenvalues --   -0.41369  -0.36130  -0.34783  -0.31266  -0.22554
 Alpha virt. eigenvalues --   -0.03283   0.08904   0.10034   0.11212   0.15195
 Alpha virt. eigenvalues --    0.18560   0.19653   0.20705   0.29894   0.33446
 Alpha virt. eigenvalues --    0.42557   0.46940   0.52961   0.53131   0.57897

  Beta  occ. eigenvalues --  -10.19757 -10.19730 -10.18697 -10.18696  -0.79187
  Beta  occ. eigenvalues --   -0.72018  -0.61595  -0.52713  -0.48296  -0.43362
  Beta  occ. eigenvalues --   -0.41369  -0.36130  -0.34783  -0.31266  -0.22554
  Beta virt. eigenvalues --   -0.03283   0.08904   0.10034   0.11212   0.15195
  Beta virt. eigenvalues --    0.18560   0.19653   0.20705   0.29894   0.33446
  Beta virt. eigenvalues --    0.42557   0.46940   0.52961   0.53131   0.57897

 Mulliken charges and spin densities:
               1          2
     1  C   -0.083040   0.000000
     2  C   -0.333290  -0.000000
     3  H    0.141937   0.000000
     4  H    0.145173  -0.000000
     5  H    0.129221  -0.000000
     6  C   -0.333285   0.000000
     7  C   -0.083047  -0.000000
     8  H    0.129221   0.000000
     9  H    0.141937  -0.000000
    10  H    0.145172   0.000000
 Sum of Mulliken charges =  -0.00000   0.00000

 Dipole moment (field-independent basis, Debye):
    X=              0.0000    Y=              0.0466    Z=              0.0628  Tot=              0.0782
 Quadrupole moment (field-independent basis, Debye-Ang):
   XX=            -28.0788   YY=            -22.5968   ZZ=            -22.5014
   XY=              0.0000   XZ=              0.0000   YZ=              0.1571

 Normal termination of Gaussian 16 at Mon Jan  8 21:33:46 2024.
