 Gaussian 16, Revision A.03,
 Gaussian 16:  ES64L-G16RevA.03 25-Dec-2016

 -----------------------------------------------
 #p b3lyp/6-31G* em=gd3bj ExtraLinks=L608 nosymm
 -----------------------------------------------

 --------------
 opted geometry
 --------------
 Symbolic Z-matrix:
 Charge =  0 Multiplicity = 2

                          Input orientation:
 ---------------------------------------------------------------------
 Center     Atomic      Atomic             Coordinates (Angstroms)
 Number     Number       Type             X           Y           Z
 ---------------------------------------------------------------------
      1          6           0        0.000002    0.934896   -1.350305
      2          6           0        0.000002    0.934896    0.008121
      3          1           0        0.000007    1.900763    0.527175
      4          1           0        0.000005    0.014566   -1.941531
      5          1           0        0.000009    1.866984   -1.919546
 ---------------------------------------------------------------------

 SCF Done:  E(UB3LYP) =  -77.8962743108     A.U. after   15 cycles

 Alpha  occ. eigenvalues --  -10.22295 -10.19639  -0.75619  -0.57228  -0.45646
 Alpha  occ. eigenvalues --   -0.40635  -0.27296  -0.26651
 Alpha virt. eigenvalues --    0.00525   0.11549   0.14055   0.20504   0.31828
 Alpha virt. eigenvalues --    0.48872   0.54405   0.55843   0.60388   0.62789
 Alpha virt. eigenvalues --    0.65934   0.82390   0.85083   0.92109   0.94365

  Beta  occ. eigenvalues --  -10.20672 -10.19793  -0.74011  -0.55239  -0.44053
  Beta  occ. eigenvalues --   -0.39298  -0.26383
  Beta virt. eigenvalues --   -0.09278   0.02012   0.12371   0.14556   0.21355
  Beta virt. eigenvalues --    0.33609   0.50040   0.54846   0.59431   0.63601
  Beta virt. eigenvalues --    0.64180   0.67037   0.83253   0.86602   0.92611

 Mulliken charges and spin densities:
               1          2
     1  C   -0.340725  -0.181882
     2  C   -0.142897   1.055361
     3  H    0.155485   0.024881
     4  H    0.161243   0.030077
     5  H    0.166894   0.071563
 Sum of Mulliken charges =  -0.00000   1.00000

 Dipole moment (field-independent basis, Debye):
    X=              0.0000    Y=              0.6341    Z=             -0.4845  Tot=              0.7980
 Quadrupole moment (field-independent basis, Debye-Ang):
   XX=            -14.3782   YY=            -10.3961   ZZ=            -11.0476
   XY=              0.0000   XZ=             -0.0000   YZ=             -0.1262

 Normal termination of Gaussian 16 at Mon Jan  8 21:32:37 2024.
