 Gaussian 16, Revision A.03,
 Gaussian 16:  ES64L-G16RevA.03 25-Dec-2016

 -----------------------------------------------
 #p b3lyp/6-31G* em=gd3bj ExtraLinks=L608 nosymm
 -----------------------------------------------

 --------------
 opted geometry
 --------------
 Symbolic Z-matrix:
 Charge =  0 Multiplicity = 2

                          Input orientation:
 ---------------------------------------------------------------------
 Center     Atomic      Atomic             Coordinates (Angstroms)
 Number     Number       Type             X           Y           Z
 ---------------------------------------------------------------------
      1          6           0        0.000002   -0.263692    0.896979
      2          6           0       -0.000007   -1.563588    0.502534
      3          1           0       -0.000017   -1.862092   -0.549821
      4          1           0       -0.000010   -2.378959    1.229163
      5          1           0        0.000010   -0.047446    1.971945
 ---------------------------------------------------------------------

 SCF Done:  E(UB3LYP) =  -77.8962748364     A.U. after   15 cycles

 Alpha  occ. eigenvalues --  -10.22295 -10.19638  -0.75619  -0.57228  -0.45647
 Alpha  occ. eigenvalues --   -0.40635  -0.27296  -0.26651
 Alpha virt. eigenvalues --    0.00526   0.11549   0.14055   0.20504   0.31828
 Alpha virt. eigenvalues --    0.48872   0.54405   0.55843   0.60388   0.62789
 Alpha virt. eigenvalues --    0.65934   0.82390   0.85083   0.92109   0.94365

  Beta  occ. eigenvalues --  -10.20672 -10.19793  -0.74011  -0.55239  -0.44053
  Beta  occ. eigenvalues --   -0.39298  -0.26383
  Beta virt. eigenvalues --   -0.09277   0.02012   0.12371   0.14556   0.21355
  Beta virt. eigenvalues --    0.33609   0.50040   0.54846   0.59431   0.63601
  Beta virt. eigenvalues --    0.64179   0.67037   0.83254   0.86602   0.92612

 Mulliken charges and spin densities:
               1          2
     1  C   -0.142897   1.055361
     2  C   -0.340726  -0.181883
     3  H    0.161243   0.030078
     4  H    0.166895   0.071563
     5  H    0.155485   0.024881
 Sum of Mulliken charges =  -0.00000   1.00000

 Dipole moment (field-independent basis, Debye):
    X=             -0.0000    Y=             -0.6477    Z=              0.4661  Tot=              0.7980
 Quadrupole moment (field-independent basis, Debye-Ang):
   XX=            -14.3782   YY=            -10.9226   ZZ=            -10.5211
   XY=              0.0000   XZ=              0.0000   YZ=             -0.2859

 Normal termination of Gaussian 16 at Mon Jan  8 21:32:26 2024.
