 Gaussian 16, Revision A.03,
 Gaussian 16:  ES64L-G16RevA.03 25-Dec-2016

 ----------------------------------------------------------------------
 #p b3lyp/6-31G* em=gd3bj ExtraLinks=L608 nosymm scf=maxcyc=-1 guess=re
 ad iop(4/6=222)
 ----------------------------------------------------------------------

 --------------
 opted geometry
 --------------
 Symbolic Z-matrix:
 Charge =  0 Multiplicity = 1

                          Input orientation:
 ---------------------------------------------------------------------
 Center     Atomic      Atomic             Coordinates (Angstroms)
 Number     Number       Type             X           Y           Z
 ---------------------------------------------------------------------
      1          6           0        0.000002   -0.263692    0.896979
      2          6           0       -0.000007   -1.563588    0.502534
      3          1           0       -0.000017   -1.862092   -0.549821
      4          1           0       -0.000010   -2.378959    1.229163
      5          1           0        0.000010   -0.047446    1.971945
      6          6           0        0.000002    0.934896   -1.350305
      7          6           0        0.000002    0.934896    0.008121
      8          1           0        0.000007    1.900763    0.527175
      9          1           0        0.000005    0.014566   -1.941531
     10          1           0        0.000009    1.866984   -1.919546
 ---------------------------------------------------------------------

 SCF Done:  E(UB3LYP) =  -156.177467437     A.U. after    1 cycles

 Alpha  occ. eigenvalues --  -10.20672 -10.19793  -0.74011  -0.55239  -0.44053
 Alpha  occ. eigenvalues --   -0.39298  -0.26383 -10.22295 -10.19639  -0.75619
 Alpha  occ. eigenvalues --   -0.57228  -0.45646  -0.40635  -0.27296  -0.26651
 Alpha virt. eigenvalues --    0.59431   0.63601   0.64179   0.67037   0.83254
 Alpha virt. eigenvalues --    0.86602   0.92612   0.96385   1.10625   1.45820
 Alpha virt. eigenvalues --    1.56723   1.80075   1.84405   1.91833   2.07615

  Beta  occ. eigenvalues --  -10.22295 -10.19638  -0.75619  -0.57228  -0.45647
  Beta  occ. eigenvalues --   -0.40635  -0.27296  -0.26651 -10.20672 -10.19793
  Beta  occ. eigenvalues --   -0.74011  -0.55239  -0.44053  -0.39298  -0.26383
  Beta virt. eigenvalues --    0.55843   0.60388   0.62789   0.65934   0.82390
  Beta virt. eigenvalues --    0.85083   0.92109   0.94365   1.09408   1.44423
  Beta virt. eigenvalues --    1.54344   1.73851   1.81322   1.90700   2.05103

 Mulliken charges and spin densities:
               1          2
     1  C   -0.142897  -1.055361
     2  C   -0.340726   0.181883
     3  H    0.161243  -0.030078
     4  H    0.166895  -0.071563
     5  H    0.155485  -0.024881
     6  C   -0.340725  -0.181882
     7  C   -0.142897   1.055361
     8  H    0.155485   0.024881
     9  H    0.161243   0.030077
    10  H    0.166894   0.071563
 Sum of Mulliken charges =   0.00000  -0.00000

 Dipole moment (field-independent basis, Debye):
    X=              0.0000    Y=             -0.0136    Z=             -0.0183  Tot=              0.0228
 Quadrupole moment (field-independent basis, Debye-Ang):
   XX=            -28.7563   YY=            -21.3187   ZZ=            -21.5688
   XY=              0.0000   XZ=              0.0000   YZ=             -0.4121

 Normal termination of Gaussian 16 at Mon Jan  8 21:32:46 2024.
