 Gaussian 16, Revision A.03,
 Gaussian 16:  ES64L-G16RevA.03 25-Dec-2016

 ----------------------------------------------------------
 #p b3lyp/6-31G* em=gd3bj ExtraLinks=L608 nosymm guess=read
 ----------------------------------------------------------

 --------------
 opted geometry
 --------------
 Symbolic Z-matrix:
 Charge =  0 Multiplicity = 1

                          Input orientation:
 ---------------------------------------------------------------------
 Center     Atomic      Atomic             Coordinates (Angstroms)
 Number     Number       Type             X           Y           Z
 ---------------------------------------------------------------------
      1          6           0       -0.049058   -0.268512    0.893791
      2          6           0        0.140912   -1.555469    0.503190
      3          1           0        0.346632   -1.832052   -0.534956
      4          1           0        0.108220   -2.379365    1.219413
      5          1           0       -0.234152   -0.068528    1.955936
      6          6           0       -0.049058    0.933201   -1.348805
      7          6           0       -0.049058    0.933201    0.009473
      8          1           0       -0.035911    1.898084    0.530274
      9          1           0       -0.077990    0.012138   -1.938189
     10          1           0       -0.032239    1.864632   -1.918896
 ---------------------------------------------------------------------

 SCF Done:  E(UB3LYP) =  -155.995843977     A.U. after   14 cycles

 Alpha  occ. eigenvalues --  -10.19756 -10.19729 -10.18691 -10.18690  -0.79202
 Alpha  occ. eigenvalues --   -0.72007  -0.61565  -0.52727  -0.48278  -0.43315
 Alpha  occ. eigenvalues --   -0.41439  -0.36231  -0.34759  -0.31107  -0.22612
 Alpha virt. eigenvalues --   -0.03192   0.08604   0.10219   0.11396   0.15158
 Alpha virt. eigenvalues --    0.18435   0.19393   0.20740   0.30032   0.33428
 Alpha virt. eigenvalues --    0.42042   0.47081   0.53158   0.53187   0.57781

  Beta  occ. eigenvalues --  -10.19756 -10.19729 -10.18691 -10.18690  -0.79202
  Beta  occ. eigenvalues --   -0.72007  -0.61565  -0.52727  -0.48278  -0.43315
  Beta  occ. eigenvalues --   -0.41439  -0.36231  -0.34759  -0.31107  -0.22612
  Beta virt. eigenvalues --   -0.03192   0.08604   0.10219   0.11396   0.15158
  Beta virt. eigenvalues --    0.18435   0.19393   0.20740   0.30032   0.33428
  Beta virt. eigenvalues --    0.42042   0.47081   0.53158   0.53187   0.57781

 Mulliken charges and spin densities:
               1          2
     1  C   -0.084049   0.000000
     2  C   -0.332768  -0.000000
     3  H    0.142281   0.000000
     4  H    0.144885  -0.000000
     5  H    0.129652  -0.000000
     6  C   -0.332768   0.000000
     7  C   -0.084050  -0.000000
     8  H    0.129652   0.000000
     9  H    0.142281  -0.000000
    10  H    0.144884   0.000000
 Sum of Mulliken charges =  -0.00000  -0.00000

 Dipole moment (field-independent basis, Debye):
    X=             -0.0071    Y=              0.0480    Z=              0.0653  Tot=              0.0813
 Quadrupole moment (field-independent basis, Debye-Ang):
   XX=            -27.9796   YY=            -22.6360   ZZ=            -22.5706
   XY=             -0.2425   XZ=             -0.4238   YZ=              0.1214

 Normal termination of Gaussian 16 at Mon Jan  8 21:35:17 2024.
