 Gaussian 16, Revision A.03,
 Gaussian 16:  ES64L-G16RevA.03 25-Dec-2016

 -----------------------------------------------
 #p b3lyp/6-31G* em=gd3bj ExtraLinks=L608 nosymm
 -----------------------------------------------

 --------------
 opted geometry
 --------------
 Symbolic Z-matrix:
 Charge =  0 Multiplicity = 2

                          Input orientation:
 ---------------------------------------------------------------------
 Center     Atomic      Atomic             Coordinates (Angstroms)
 Number     Number       Type             X           Y           Z
 ---------------------------------------------------------------------
      1          6           0       -0.049058   -0.268512    0.893791
      2          6           0        0.140912   -1.555469    0.503190
      3          1           0        0.346632   -1.832052   -0.534956
      4          1           0        0.108220   -2.379365    1.219413
      5          1           0       -0.234152   -0.068528    1.955936
 ---------------------------------------------------------------------

 SCF Done:  E(UB3LYP) =  -77.8963420141     A.U. after   15 cycles

 Alpha  occ. eigenvalues --  -10.22290 -10.19636  -0.75618  -0.57225  -0.45655
 Alpha  occ. eigenvalues --   -0.40637  -0.27298  -0.26636
 Alpha virt. eigenvalues --    0.00529   0.11558   0.14052   0.20493   0.31836
 Alpha virt. eigenvalues --    0.48868   0.54404   0.55857   0.60360   0.62792
 Alpha virt. eigenvalues --    0.65946   0.82420   0.85093   0.92101   0.94386

  Beta  occ. eigenvalues --  -10.20667 -10.19790  -0.74010  -0.55234  -0.44063
  Beta  occ. eigenvalues --   -0.39301  -0.26383
  Beta virt. eigenvalues --   -0.09265   0.02014   0.12378   0.14556   0.21343
  Beta virt. eigenvalues --    0.33615   0.50040   0.54846   0.59427   0.63603
  Beta virt. eigenvalues --    0.64173   0.67046   0.83278   0.86617   0.92604

 Mulliken charges and spin densities:
               1          2
     1  C   -0.142918   1.055398
     2  C   -0.340703  -0.181937
     3  H    0.161225   0.030137
     4  H    0.166921   0.071549
     5  H    0.155475   0.024853
 Sum of Mulliken charges =  -0.00000   1.00000

 Dipole moment (field-independent basis, Debye):
    X=              0.0056    Y=             -0.6492    Z=              0.4621  Tot=              0.7969
 Quadrupole moment (field-independent basis, Debye-Ang):
   XX=            -14.2547   YY=            -10.9623   ZZ=            -10.6091
   XY=             -0.3434   XZ=             -0.5374   YZ=             -0.3429

 Normal termination of Gaussian 16 at Mon Jan  8 21:33:59 2024.
