 Gaussian 16, Revision A.03,
 Gaussian 16:  ES64L-G16RevA.03 25-Dec-2016

 -----------------------------------------------
 #p b3lyp/6-31G* em=gd3bj ExtraLinks=L608 nosymm
 -----------------------------------------------

 --------------
 opted geometry
 --------------
 Symbolic Z-matrix:
 Charge =  0 Multiplicity = 2

                          Input orientation:
 ---------------------------------------------------------------------
 Center     Atomic      Atomic             Coordinates (Angstroms)
 Number     Number       Type             X           Y           Z
 ---------------------------------------------------------------------
      1          6           0       -0.049058    0.933201   -1.348805
      2          6           0       -0.049058    0.933201    0.009473
      3          1           0       -0.035911    1.898084    0.530274
      4          1           0       -0.077990    0.012138   -1.938189
      5          1           0       -0.032239    1.864632   -1.918896
 ---------------------------------------------------------------------

 SCF Done:  E(UB3LYP) =  -77.8963415483     A.U. after   15 cycles

 Alpha  occ. eigenvalues --  -10.22290 -10.19636  -0.75618  -0.57225  -0.45655
 Alpha  occ. eigenvalues --   -0.40637  -0.27298  -0.26636
 Alpha virt. eigenvalues --    0.00529   0.11558   0.14052   0.20493   0.31836
 Alpha virt. eigenvalues --    0.48868   0.54404   0.55857   0.60361   0.62792
 Alpha virt. eigenvalues --    0.65946   0.82420   0.85093   0.92101   0.94385

  Beta  occ. eigenvalues --  -10.20667 -10.19791  -0.74010  -0.55234  -0.44063
  Beta  occ. eigenvalues --   -0.39301  -0.26383
  Beta virt. eigenvalues --   -0.09265   0.02014   0.12378   0.14556   0.21343
  Beta virt. eigenvalues --    0.33615   0.50040   0.54846   0.59427   0.63603
  Beta virt. eigenvalues --    0.64174   0.67046   0.83278   0.86617   0.92604

 Mulliken charges and spin densities:
               1          2
     1  C   -0.340703  -0.181937
     2  C   -0.142918   1.055399
     3  H    0.155475   0.024853
     4  H    0.161225   0.030137
     5  H    0.166921   0.071549
 Sum of Mulliken charges =  -0.00000   1.00000

 Dipole moment (field-independent basis, Debye):
    X=             -0.0034    Y=              0.6338    Z=             -0.4830  Tot=              0.7969
 Quadrupole moment (field-independent basis, Debye-Ang):
   XX=            -14.3760   YY=            -10.3999   ZZ=            -11.0501
   XY=              0.0261   XZ=              0.0451   YZ=             -0.1231

 Normal termination of Gaussian 16 at Mon Jan  8 21:34:09 2024.
