 Gaussian 16, Revision A.03,
 Gaussian 16:  ES64L-G16RevA.03 25-Dec-2016

 ----------------------------------------------------------------------
 #p b3lyp/6-31G* em=gd3bj ExtraLinks=L608 nosymm scf=maxcyc=-1 guess=re
 ad iop(4/6=222)
 ----------------------------------------------------------------------

 --------------
 opted geometry
 --------------
 Symbolic Z-matrix:
 Charge =  0 Multiplicity = 1

                          Input orientation:
 ---------------------------------------------------------------------
 Center     Atomic      Atomic             Coordinates (Angstroms)
 Number     Number       Type             X           Y           Z
 ---------------------------------------------------------------------
      1          6           0       -0.049058   -0.268512    0.893791
      2          6           0        0.140912   -1.555469    0.503190
      3          1           0        0.346632   -1.832052   -0.534956
      4          1           0        0.108220   -2.379365    1.219413
      5          1           0       -0.234152   -0.068528    1.955936
      6          6           0       -0.049058    0.933201   -1.348805
      7          6           0       -0.049058    0.933201    0.009473
      8          1           0       -0.035911    1.898084    0.530274
      9          1           0       -0.077990    0.012138   -1.938189
     10          1           0       -0.032239    1.864632   -1.918896
 ---------------------------------------------------------------------

 SCF Done:  E(UB3LYP) =  -156.178152465     A.U. after    1 cycles

 Alpha  occ. eigenvalues --  -10.20667 -10.19790  -0.74010  -0.55234  -0.44063
 Alpha  occ. eigenvalues --   -0.39301  -0.26383 -10.22290 -10.19636  -0.75618
 Alpha  occ. eigenvalues --   -0.57225  -0.45655  -0.40637  -0.27298  -0.26636
 Alpha virt. eigenvalues --    0.59427   0.63603   0.64173   0.67046   0.83278
 Alpha virt. eigenvalues --    0.86617   0.92604   0.96405   1.10616   1.45823
 Alpha virt. eigenvalues --    1.56721   1.80065   1.84452   1.91841   2.07605

  Beta  occ. eigenvalues --  -10.22290 -10.19636  -0.75618  -0.57225  -0.45655
  Beta  occ. eigenvalues --   -0.40637  -0.27298  -0.26636 -10.20667 -10.19791
  Beta  occ. eigenvalues --   -0.74010  -0.55234  -0.44063  -0.39301  -0.26383
  Beta virt. eigenvalues --    0.55857   0.60360   0.62792   0.65946   0.82420
  Beta virt. eigenvalues --    0.85093   0.92101   0.94386   1.09401   1.44430
  Beta virt. eigenvalues --    1.54341   1.73844   1.81357   1.90703   2.05092

 Mulliken charges and spin densities:
               1          2
     1  C   -0.142918  -1.055398
     2  C   -0.340703   0.181937
     3  H    0.161225  -0.030137
     4  H    0.166921  -0.071549
     5  H    0.155475  -0.024853
     6  C   -0.340703  -0.181937
     7  C   -0.142918   1.055399
     8  H    0.155475   0.024853
     9  H    0.161225   0.030137
    10  H    0.166921   0.071549
 Sum of Mulliken charges =   0.00000  -0.00000

 Dipole moment (field-independent basis, Debye):
    X=              0.0023    Y=             -0.0154    Z=             -0.0209  Tot=              0.0260
 Quadrupole moment (field-independent basis, Debye-Ang):
   XX=            -28.6306   YY=            -21.3622   ZZ=            -21.6592
   XY=             -0.3174   XZ=             -0.4923   YZ=             -0.4660

 Normal termination of Gaussian 16 at Mon Jan  8 21:34:18 2024.
