 Gaussian 16, Revision A.03,
 Gaussian 16:  ES64L-G16RevA.03 25-Dec-2016

 ----------------------------------------------------------
 #p b3lyp/6-31G* em=gd3bj ExtraLinks=L608 nosymm guess=read
 ----------------------------------------------------------

 --------------
 opted geometry
 --------------
 Symbolic Z-matrix:
 Charge =  0 Multiplicity = 1

                          Input orientation:
 ---------------------------------------------------------------------
 Center     Atomic      Atomic             Coordinates (Angstroms)
 Number     Number       Type             X           Y           Z
 ---------------------------------------------------------------------
      1          6           0       -0.097223   -0.281116    0.883951
      2          6           0        0.279093   -1.532085    0.512905
      3          1           0        0.667400   -1.754427   -0.485279
      4          1           0        0.227404   -2.374035    1.206754
      5          1           0       -0.449266   -0.121751    1.910344
      6          6           0       -0.097223    0.927494   -1.348549
      7          6           0       -0.097223    0.927494    0.009468
      8          1           0       -0.082756    1.890444    0.534207
      9          1           0       -0.140951    0.004343   -1.933755
     10          1           0       -0.072083    1.857871   -1.920171
 ---------------------------------------------------------------------

 SCF Done:  E(UB3LYP) =  -155.996095135     A.U. after   14 cycles

 Alpha  occ. eigenvalues --  -10.19757 -10.19730 -10.18679 -10.18678  -0.79228
 Alpha  occ. eigenvalues --   -0.71985  -0.61485  -0.52766  -0.48221  -0.43189
 Alpha  occ. eigenvalues --   -0.41628  -0.36479  -0.34691  -0.30702  -0.22768
 Alpha virt. eigenvalues --   -0.02932   0.07927   0.10572   0.11853   0.15050
 Alpha virt. eigenvalues --    0.18054   0.18832   0.20839   0.30390   0.33367
 Alpha virt. eigenvalues --    0.40949   0.47460   0.53313   0.53536   0.57474

  Beta  occ. eigenvalues --  -10.19757 -10.19730 -10.18679 -10.18678  -0.79228
  Beta  occ. eigenvalues --   -0.71985  -0.61485  -0.52766  -0.48221  -0.43189
  Beta  occ. eigenvalues --   -0.41628  -0.36479  -0.34691  -0.30702  -0.22768
  Beta virt. eigenvalues --   -0.02932   0.07927   0.10572   0.11853   0.15050
  Beta virt. eigenvalues --    0.18054   0.18832   0.20839   0.30390   0.33367
  Beta virt. eigenvalues --    0.40949   0.47460   0.53313   0.53536   0.57474

 Mulliken charges and spin densities:
               1          2
     1  C   -0.086732   0.000000
     2  C   -0.331417  -0.000000
     3  H    0.143185   0.000000
     4  H    0.144187  -0.000000
     5  H    0.130783  -0.000000
     6  C   -0.331417   0.000000
     7  C   -0.086737  -0.000000
     8  H    0.130779   0.000000
     9  H    0.143185  -0.000000
    10  H    0.144184   0.000000
 Sum of Mulliken charges =  -0.00000  -0.00000

 Dipole moment (field-independent basis, Debye):
    X=             -0.0157    Y=              0.0523    Z=              0.0724  Tot=              0.0907
 Quadrupole moment (field-independent basis, Debye-Ang):
   XX=            -27.7132   YY=            -22.7402   ZZ=            -22.7535
   XY=             -0.4713   XZ=             -0.7787   YZ=              0.0219

 Normal termination of Gaussian 16 at Mon Jan  8 21:36:51 2024.
