 Gaussian 16, Revision A.03,
 Gaussian 16:  ES64L-G16RevA.03 25-Dec-2016

 -----------------------------------------------
 #p b3lyp/6-31G* em=gd3bj ExtraLinks=L608 nosymm
 -----------------------------------------------

 --------------
 opted geometry
 --------------
 Symbolic Z-matrix:
 Charge =  0 Multiplicity = 2

                          Input orientation:
 ---------------------------------------------------------------------
 Center     Atomic      Atomic             Coordinates (Angstroms)
 Number     Number       Type             X           Y           Z
 ---------------------------------------------------------------------
      1          6           0       -0.097223    0.927494   -1.348549
      2          6           0       -0.097223    0.927494    0.009468
      3          1           0       -0.082756    1.890444    0.534207
      4          1           0       -0.140951    0.004343   -1.933755
      5          1           0       -0.072083    1.857871   -1.920171
 ---------------------------------------------------------------------

 SCF Done:  E(UB3LYP) =  -77.8964855409     A.U. after   15 cycles

 Alpha  occ. eigenvalues --  -10.22279 -10.19631  -0.75615  -0.57214  -0.45674
 Alpha  occ. eigenvalues --   -0.40639  -0.27303  -0.26603
 Alpha virt. eigenvalues --    0.00535   0.11575   0.14044   0.20468   0.31850
 Alpha virt. eigenvalues --    0.48862   0.54404   0.55893   0.60300   0.62796
 Alpha virt. eigenvalues --    0.65966   0.82490   0.85115   0.92075   0.94433

  Beta  occ. eigenvalues --  -10.20657 -10.19786  -0.74006  -0.55220  -0.44086
  Beta  occ. eigenvalues --   -0.39308  -0.26384
  Beta virt. eigenvalues --   -0.09237   0.02019   0.12391   0.14556   0.21316
  Beta virt. eigenvalues --    0.33621   0.50042   0.54845   0.59425   0.63607
  Beta virt. eigenvalues --    0.64157   0.67060   0.83335   0.86649   0.92580

 Mulliken charges and spin densities:
               1          2
     1  C   -0.340643  -0.182024
     2  C   -0.142972   1.055487
     3  H    0.155437   0.024798
     4  H    0.161201   0.030244
     5  H    0.166976   0.071494
 Sum of Mulliken charges =  -0.00000   1.00000

 Dipole moment (field-independent basis, Debye):
    X=             -0.0103    Y=              0.6332    Z=             -0.4799  Tot=              0.7945
 Quadrupole moment (field-independent basis, Debye-Ang):
   XX=            -14.3721   YY=            -10.4088   ZZ=            -11.0536
   XY=              0.0158   XZ=              0.0761   YZ=             -0.1165

 Normal termination of Gaussian 16 at Mon Jan  8 21:35:41 2024.
