 Gaussian 16, Revision A.03,
 Gaussian 16:  ES64L-G16RevA.03 25-Dec-2016

 -----------------------------------------------
 #p b3lyp/6-31G* em=gd3bj ExtraLinks=L608 nosymm
 -----------------------------------------------

 --------------
 opted geometry
 --------------
 Symbolic Z-matrix:
 Charge =  0 Multiplicity = 2

                          Input orientation:
 ---------------------------------------------------------------------
 Center     Atomic      Atomic             Coordinates (Angstroms)
 Number     Number       Type             X           Y           Z
 ---------------------------------------------------------------------
      1          6           0       -0.097223   -0.281116    0.883951
      2          6           0        0.279093   -1.532085    0.512905
      3          1           0        0.667400   -1.754427   -0.485279
      4          1           0        0.227404   -2.374035    1.206754
      5          1           0       -0.449266   -0.121751    1.910344
 ---------------------------------------------------------------------

 SCF Done:  E(UB3LYP) =  -77.8964873907     A.U. after   15 cycles

 Alpha  occ. eigenvalues --  -10.22279 -10.19631  -0.75615  -0.57214  -0.45674
 Alpha  occ. eigenvalues --   -0.40639  -0.27303  -0.26602
 Alpha virt. eigenvalues --    0.00535   0.11575   0.14044   0.20468   0.31850
 Alpha virt. eigenvalues --    0.48862   0.54404   0.55893   0.60299   0.62797
 Alpha virt. eigenvalues --    0.65966   0.82491   0.85115   0.92075   0.94433

  Beta  occ. eigenvalues --  -10.20656 -10.19786  -0.74006  -0.55220  -0.44086
  Beta  occ. eigenvalues --   -0.39308  -0.26384
  Beta virt. eigenvalues --   -0.09237   0.02019   0.12391   0.14556   0.21315
  Beta virt. eigenvalues --    0.33622   0.50042   0.54845   0.59424   0.63607
  Beta virt. eigenvalues --    0.64157   0.67060   0.83335   0.86650   0.92580

 Mulliken charges and spin densities:
               1          2
     1  C   -0.142973   1.055494
     2  C   -0.340644  -0.182031
     3  H    0.161200   0.030247
     4  H    0.166978   0.071494
     5  H    0.155439   0.024796
 Sum of Mulliken charges =   0.00000   1.00000

 Dipole moment (field-independent basis, Debye):
    X=              0.0158    Y=             -0.6511    Z=              0.4550  Tot=              0.7945
 Quadrupole moment (field-independent basis, Debye-Ang):
   XX=            -13.9253   YY=            -11.0697   ZZ=            -10.8395
   XY=             -0.6274   XZ=             -0.9735   YZ=             -0.4957

 Normal termination of Gaussian 16 at Mon Jan  8 21:35:30 2024.
