 Gaussian 16, Revision A.03,
 Gaussian 16:  ES64L-G16RevA.03 25-Dec-2016

 ----------------------------------------------------------------------
 #p b3lyp/6-31G* em=gd3bj ExtraLinks=L608 nosymm scf=maxcyc=-1 guess=re
 ad iop(4/6=222)
 ----------------------------------------------------------------------

 --------------
 opted geometry
 --------------
 Symbolic Z-matrix:
 Charge =  0 Multiplicity = 1

                          Input orientation:
 ---------------------------------------------------------------------
 Center     Atomic      Atomic             Coordinates (Angstroms)
 Number     Number       Type             X           Y           Z
 ---------------------------------------------------------------------
      1          6           0       -0.097223   -0.281116    0.883951
      2          6           0        0.279093   -1.532085    0.512905
      3          1           0        0.667400   -1.754427   -0.485279
      4          1           0        0.227404   -2.374035    1.206754
      5          1           0       -0.449266   -0.121751    1.910344
      6          6           0       -0.097223    0.927494   -1.348549
      7          6           0       -0.097223    0.927494    0.009468
      8          1           0       -0.082756    1.890444    0.534207
      9          1           0       -0.140951    0.004343   -1.933755
     10          1           0       -0.072083    1.857871   -1.920171
 ---------------------------------------------------------------------

 SCF Done:  E(UB3LYP) =  -156.179493752     A.U. after    1 cycles

 Alpha  occ. eigenvalues --  -10.20656 -10.19786  -0.74006  -0.55220  -0.44086
 Alpha  occ. eigenvalues --   -0.39308  -0.26384 -10.22279 -10.19631  -0.75615
 Alpha  occ. eigenvalues --   -0.57214  -0.45674  -0.40639  -0.27303  -0.26603
 Alpha virt. eigenvalues --    0.59424   0.63607   0.64157   0.67060   0.83335
 Alpha virt. eigenvalues --    0.86650   0.92580   0.96451   1.10598   1.45831
 Alpha virt. eigenvalues --    1.56718   1.80051   1.84535   1.91861   2.07581

  Beta  occ. eigenvalues --  -10.22279 -10.19631  -0.75615  -0.57214  -0.45674
  Beta  occ. eigenvalues --   -0.40639  -0.27303  -0.26602 -10.20657 -10.19786
  Beta  occ. eigenvalues --   -0.74006  -0.55220  -0.44086  -0.39308  -0.26384
  Beta virt. eigenvalues --    0.55893   0.60299   0.62797   0.65966   0.82491
  Beta virt. eigenvalues --    0.85115   0.92075   0.94433   1.09384   1.44444
  Beta virt. eigenvalues --    1.54336   1.73837   1.81416   1.90709   2.05065

 Mulliken charges and spin densities:
               1          2
     1  C   -0.142973  -1.055494
     2  C   -0.340644   0.182031
     3  H    0.161200  -0.030247
     4  H    0.166978  -0.071494
     5  H    0.155439  -0.024796
     6  C   -0.340643  -0.182024
     7  C   -0.142972   1.055487
     8  H    0.155437   0.024798
     9  H    0.161201   0.030244
    10  H    0.166976   0.071494
 Sum of Mulliken charges =   0.00000  -0.00000

 Dipole moment (field-independent basis, Debye):
    X=              0.0054    Y=             -0.0179    Z=             -0.0249  Tot=              0.0311
 Quadrupole moment (field-independent basis, Debye-Ang):
   XX=            -28.2974   YY=            -21.4785   ZZ=            -21.8931
   XY=             -0.6116   XZ=             -0.8974   YZ=             -0.6122

 Normal termination of Gaussian 16 at Mon Jan  8 21:35:51 2024.
